Elements name,Elements symbol,Number of Electron,Number of Proton,Number of Neutron,Atomic number,Atomic mass,State ,Melting point (K/C/F),Boiling point (K/C/F),Density at(g/cm^3)
Actinium,Ac,89,89,138,89,227.00,Solid,1323/1059/1922,3473/3200/5792,10.07
Aluminum,Al,13,13,14,13,26.98,Solid,933/660/1221,2792/2519/4566,2.70
Americium,Am,95,95,148,95,243.00,Solid,1449/1176/214,2284/2011/3652,13.67
Antimony,Sb,51,51,71,51,121.76,Solid,904/631/1167,1860/1587/2888,6.70
Argon,Ar,18,18,22,18,39.95,Gas,84/ -189/ -309,87/-186/-303,0.00
Arsenic,As,33,33,42,33,74.92,Solid,1090/817/1502,887/614/1137,5.73
Astatine,At,85,85,125,85,210.00,Solid,575/302/575,610/337/638,8.91
Barium,Ba,56,56,81,56,137.33,Solid,1000/727/1340,2143/1870/3398,3.51
Berkelium,Bk,97,97,150,97,247.00,Solid,1323/1050/1922,"2,900/2,627/4,761",14.78
Beryllium,Be,4,4,5,4,9.01,Solid,1560/1287/2348,2743/2470/4478,1.85
Bismuth,Bi,83,83,126,83,208.98,Solid,544/271/520,1837/1564/2847,9.78
Boron,B,5,5,6,5,10.81,Solid,2348/2075/3767,4273/4000/7232,2.46
Bromine,Br,35,35,45,35,79.90,Liquid,266/-7/19,332/59/138,3.12
Cadmium,Cd,48,48,64,48,112.41,Solid,594/21/610,1040/767/1412,8.65
Calcium,Ca,20,20,20,20,40.08,Solid,1115/842/1547,1757/1484/2703,1.55
Californium,Cf,98,98,153,98,251.00,Solid,1173/900/1652,"1,745/1,472/2,682",15.10
Carbon,C,6,6,6,6,12.01,Solid,3823/3550/6422,4300/4027/7280,2.26
Cerium,Ce,58,58,82,58,140.12,Solid,1071/798/1468,3633/3360/6080,6.69
Cesium,Cs,55,55,78,55,132.91,Solid,302/28/83,944/671/1240,1.88
Chlorine,Cl,17,17,18,17,35.45,Gas,172/-102/-151,239/-34/-29,0.00
Chromium,Cr,24,24,28,24,52.00,Solid,2180/1907/3464,2944/2671/4840,7.14
Cobalt,Co,27,27,32,27,58.93,Solid,1768/1495/2723,3200/2927/5300,8.90
Copper,Cu,29,29,35,29,63.55,Solid,1358/1085/1984,2835/2562/4643,8.92
Curium,Cm,96,96,151,96,247.00,Solid,1618/1345/2453,3383/3110/5630,13.51
Dysprosium,Dy,66,66,96,66,162.50,Solid,1629/1356/2473,3503/3230/5846,8.22
Einsteinium,Es,99,99,153,99,252.00,Solid,1133/860/1580,1269/996/?1825,8.84
Erbium,Er,68,68,99,68,167.26,Solid,1770/1497/2726,3141/2868/5194,9.07
Europium,Eu,63,63,89,63,151.96,Solid,1095/822/1511,1800/1527/2780,5.24
Fermium,Fm,100,100,157,100,257.00,Solid,1800/1527/2780,1800/1527/ ?2781,9.70
Fluorine,F,9,9,10,9,19.00,Gas,53/-220/-364,85/-188/-307,0.00
Francium,Fr,87,87,136,87,223.00,Solid,300/27/80,950/677/1250,48.00
Gallium,Ga,31,31,39,31,69.72,Solid,303/30/86,2477/2204/3999,5.90
Gold,Au,79,79,118,79,196.97,Solid,1337/1064/1948,3129/2856/5173,19.30
Helium,He,2,2,2,2,4.00,Gas,0/-273/-460,4/-269/-452,0.00
Holmium,Ho,67,67,98,67,164.93,Solid,1936/1663/3025,3675/3402/6155,9.84
Hydrogen,H,1,1,0,1,1.01,Gas,14/-259/-434,20/-253/-423,0.00
Indium,In,49,49,66,49,114.82,Solid,430/157/314,2345/2072/3761,7.31
Iodine,I,53,53,74,53,126.90,Solid,387/114/237,457/184/364,4.94
Iridium,Ir,77,77,115,77,192.22,Solid,2739/2466/4471,4701/4428/8002,22.65
Iron,Fe,26,26,30,26,55.85,Solid,1811/1538/2800,3434/2861/5182,7.87
Krypton,Kr,36,36,48,36,83.80,Gas,116/-157/-251,120/-153/-244,0.00
Lanthanum,La,57,57,82,57,138.91,Solid,1193/920/1688,3737/3464/6267,6.15
Lawrencium,Lr,103,103,159,103,262.00,Solid,1900/1628/2960,1900/1628/2960,14.40
Lead,Pb,82,82,125,82,207.20,Solid,601/327/621,2022/1749/3180,11.34
Lithium,Li,3,3,4,3,6.94,Solid,454/181/357,1615/1342/2447,0.54
Lutetium,Lu,71,71,104,71,174.97,Solid,1936/1663/3025,3675/3402/6155,9.84
Magnesium,Mg,12,12,12,12,24.31,Solid,923/650/1202,1363/1090/1994,1.74
Manganese,Mn,25,25,30,25,54.94,Solid,1519/1246/2275,2334/2061/3742,7.47
Mendelevium,Md,101,101,157,101,258.00,Solid,1100/827/1520,1100/827/1520,10.30
Mercury,Hg,80,80,121,80,200.59,Liquid,234/-39/-38,630/357/674,13.53
Neon,Ne,10,10,10,10,20.18,Gas,25/-249/-415,27/-246/-411,0.00
Neptunium,Np,93,93,144,93,237.00,Solid,917/644/1191,4273/4000/7232,20.45
Nickel,Ni,28,28,31,28,58.69,Solid,1728/1455/2651,3186/2913/5275,8.91
Niobium,Nb,41,41,52,41,92.91,Solid,2750/2477/4490,5017/4744/8571,8.57
Nitrogen,N,7,7,7,7,14.01,Gas,63/-210/-346,77/-196/-320,0.00
Nobelium,No,102,102,157,102,259.00,Solid,1100/827/1520,1100/827/1520,9.90
Oxygen,O,8,8,8,8,16.00,Gas,55/-218/-361,90/-183/-297,0.00
Palladium,Pd,46,46,60,46,106.42,Solid,1828/1555/2831,3236/2963/5365,12.02
Phosphorus,P,15,15,16,15,30.97,Solid,317/44/111,554/280/537,1.82
Platinum,Pt,78,78,117,78,195.08,Solid,2041/1768/3215,4098/3825/6917,21.09
Plutonium,Pu,94,94,150,94,244.00,Solid,913/640/1184,3503/3230/5846,19.82
Polonium,Po,84,84,125,84,209.00,Solid,527/254/489,1235/962/1763,9.20
Potassium,K,19,19,20,19,39.10,Solid,337/63/146,1032/759/1398,0.86
Praseodymium,Pr,59,59,82,59,140.91,Solid,1204/931/1708,3563/3290/5954,6.64
Promethium,Pm,61,61,84,61,145.00,Solid,1373/1100/2012,3273/3000/5432,7.26
Protactinium,Pa,91,91,140,91,231.04,Solid,1845/1572/2861,4273/4000/232,15.37
Radium,Ra,88,88,138,88,226.00,Solid,973/700/1292,2010/1737/3158,5.00
Radon,Rn,86,86,136,86,222.00,Gas,202/-71/-96,211/-62/-79,0.01
Rhenium,Re,75,75,111,75,186.21,Solid,3459/3186/5767,5869/5596/10105,21.02
Rhodium,Rh,45,45,58,45,102.91,Solid,2237/1964/3567,3968/3695/6683,12.45
Rubidium,Rb,37,37,48,37,85.47,Solid,312/39/103,961/688/1270,1.53
Samarium,Sm,62,62,88,62,150.36,Solid,1345/1072/1961,2076/1803/3277,7.35
Scandium,Sc,21,21,24,21,44.96,Solid,1814/1541/2806,3103/2830/5126,2.99
Selenium,Se,34,34,45,34,78.96,Solid,494/221/430,958/685/1265,4.82
Silicon,Si,14,14,14,14,28.09,Solid,1687/1414/2577,3173/2900/5252,2.33
Silver,Ag,47,47,61,47,107.87,Solid,1235/962/1763,2435/2162/3923,10.49
Sodium,Na,11,11,12,11,22.99,Solid,371/98/208,1156/883/1621,0.97
Sulfur,S,16,16,16,16,32.07,Solid,388/115/239,718/445/832,1.96
Tantalum,Ta,73,73,108,73,180.95,Solid,3290/3017/5462,5731/5458/9856,16.65
Technetium,Tc,43,43,55,43,98.00,Solid,2430/2457/3914,4538/4265/7709,11.50
Tellurium,Te,52,52,76,52,127.60,Solid,723/450/841,1261/988/1810,6.24
Terbium,Tb,65,65,94,65,158.93,Solid,1629/1356/2473,3503/3230/5846,8.22
Thallium,Tl,81,81,123,81,204.38,Solid,577/304/579,1746/1473/2683,11.85
Thorium,Th,90,90,142,90,232.04,Solid,2023/1750/3182,5093/4820/8708,11.72
Thulium,Tm,69,69,100,69,168.93,Solid,1818/1545/2813,2223/1950/3542,9.32
Tin,Sn,50,50,69,50,118.71,Solid,505/232/449,2875/2602/4715,7.31
Titanium,Ti,22,22,26,22,47.87,Solid,1941/1668/3034,3560/3287/5948,4.51
Tungsten,W,74,74,110,74,183.84,Solid,3695/3422/6191,5828/5555/10031,19.25
Uranium,U,92,92,146,92,238.03,Solid,1408/1135/2075,4200/3927/7100,19.05
Vanadium,V,23,23,28,23,50.94,Solid,2183/1910/3170,3680/3407/6164,6.11
Xenon,Xe,54,54,77,54,131.29,Gas,161/-112/-169,165/-108/-162,0.01
Yttrium,Y,39,39,50,39,88.91,Solid,1799/1526/2779,3618/3345/6053,4.47
Zinc,Zn,30,30,35,30,65.41,Solid,693/420/787,1180/907/1664,7.14
Zirconium,Zr,40,40,51,40,91.22,Solid,2128/1855/3371,4682/4409/7968,6.51
Rutherfordium,Rf,104,104,163,104,267.12,Solid,2400/2100/3800,5800/5500/9900,23.20
Dubnium,Db,105,105,163,105,268.13,Solid,NA,NA,29.30
Seaborgium,Sg,106,106,163,106,269.13,Solid,NA,NA,35.00
Bohrium,Bh,107,107,163,107,270.13,Solid,NA,NA,37.00
Hassium,Hs,108,108,163,108,269.13,Solid,NA,NA,40.70
Meitnerium,Mt,109,109,168,109,277.15,Solid,NA,NA,37.40
Darmstadtium,Ds,110,110,172,110,282.17,Solid,NA,NA,34.80
Roentgenium,Rg,111,111,171,111,282.17,Solid,NA,NA,28.70
Copernicium,Cn,112,112,174,112,286.18,Solid,NA,NA,23.70
Nihonium,Nh,113,113,173,113,286.18,Solid,700/430/810,1430 /1130/2070 ,16.00
Flerovium,Fl,114,114,176,114,290.19,Solid,NA,210K/-60/-80,14.00
Moscovium,Mc,115,115,175,115,290.20,Solid,670/400/750,1400/1100/2000,13.50
Livermorium,Lv,116,116,177,116,293.21,Solid,780/507/944,1135/862/1583,12.90
Tennessine,Ts,117,117,177,117,294.21,Solid,823/550/1022,883/610/1130,7.20
Oganesson,Og,118,118,,118,295.22,Solid,NA,350/80/170,0.00